/*--------------------------------*- C++ -*----------------------------------*\
| =========                 |                                                 |
| \\      /  F ield         | OpenFOAM: The Open Source CFD Toolbox           |
|  \\    /   O peration     | Version:  5                                     |
|   \\  /    A nd           | Web:      www.OpenFOAM.org                      |
|    \\/     M anipulation  |                                                 |
\*---------------------------------------------------------------------------*/
FoamFile
{
    version     2.0;
    format      ascii;
    class       volVectorField;
    location    "0";
    object      U;
}
// * * * * * * * * * * * * * * * * * * * * * * * * * * * * * * * * * * * * * //

dimensions      [0 1 -1 0 0 0 0];

internalField   uniform ( 0 0 0 );

boundaryField
{
    FUEL
    {
        type            decayingTurbulenceInflowGenerator;
        LField          nonuniform List<scalar>
(
//L
9.9625e-05
0.00015266
0.00027205
0.00036284
0.0004928
0.00061342
0.0007526
0.00091161
0.001079
0.0012433
0.0014184
0.0016153
9.7158e-05
0.00017728
0.00027113
0.00038854
0.00052047
0.00066543
0.00082717
0.00099516
0.0011675
0.0013424
0.0015288
0.0017252
0.00010289
0.00018472
0.00029588
0.0004242
0.00056877
0.00072949
0.0009035
0.0010884
0.0012655
0.0014531
0.0016452
0.0018396
0.00011019
0.00020367
0.00032035
0.0004577
0.00061345
0.0007846
0.0009736
0.0011652
0.0013564
0.0015475
0.0017471
0.0019463
0.00011865
0.00021646
0.00034229
0.00048708
0.00064927
0.00082904
0.0010281
0.0012253
0.001427
0.0016207
0.0018215
0.0020336
0.00013025
0.00022939
0.00036517
0.00050798
0.00068265
0.0008598
0.0010743
0.0012672
0.0014812
0.0016733
0.0018759
0.0020936
0.00013109
0.00023501
0.00037243
0.00052551
0.00069556
0.00088614
0.0010962
0.0013014
0.0015115
0.0017114
0.0019192
0.0021352
0.00012818
0.00023322
0.00037137
0.00052661
0.00069794
0.00089164
0.0011056
0.0013136
0.0015281
0.0017308
0.0019417
0.0021616
0.00012554
0.0002297
0.00036961
0.00052548
0.00069784
0.00089284
0.0011087
0.0013189
0.0015369
0.0017407
0.0019538
0.0021759
0.00012449
0.00022813
0.00036871
0.00052474
0.00069741
0.00089282
0.0011094
0.0013204
0.0015392
0.0017438
0.0019577
0.0021806
0.00012565
0.00022981
0.00036972
0.00052562
0.00069803
0.00089312
0.0011091
0.0013194
0.0015374
0.0017413
0.0019544
0.0021765
0.00012863
0.00023371
0.00037192
0.00052725
0.00069865
0.00089255
0.0011066
0.0013147
0.0015293
0.001732
0.0019429
0.0021627
0.00013217
0.0002362
0.0003739
0.00052716
0.00069731
0.00088813
0.0010984
0.0013035
0.0015136
0.0017134
0.001921
0.0021367
0.00013229
0.00023173
0.00036794
0.00051092
0.00068578
0.00086304
0.0010776
0.0012702
0.0014841
0.0016759
0.001878
0.0020954
0.0001211
0.00021966
0.00034594
0.00049098
0.00065342
0.0008332
0.0010324
0.0012289
0.0014306
0.0016236
0.0018238
0.0020356
0.00011274
0.00020722
0.00032413
0.00046177
0.00061774
0.00078885
0.00097791
0.0011687
0.0013599
0.0015503
0.0017492
0.0019481
0.00010502
0.00018708
0.00029906
0.00042766
0.00057238
0.00073305
0.00090704
0.0010913
0.0012683
0.0014553
0.0016472
0.0018407
9.8582e-05
0.00017895
0.0002732
0.00039077
0.00052281
0.00066781
0.00082942
0.00099728
0.0011691
0.0013437
0.0015297
0.0017257
0.0001002
0.00015333
0.00027279
0.00036362
0.00049354
0.00061422
0.00075328
0.00091219
0.0010794
0.0012435
0.0014183
0.001615
9.9082e-05
0.00014918
0.00027175
0.00036665
0.00048655
0.00060533
0.00074403
0.00089979
0.0010597
0.0012287
0.0014029
0.0016029
9.8348e-05
0.00017952
0.000273
0.00038732
0.00051737
0.00066036
0.00081791
0.00098448
0.0011567
0.0013311
0.0015102
0.0017136
0.00010335
0.00018848
0.00029348
0.00042163
0.0005631
0.00072423
0.00089469
0.0010826
0.0012554
0.0014444
0.0016343
0.0018332
0.00011036
0.00020032
0.00031732
0.00045411
0.00060653
0.00077731
0.00096263
0.0011566
0.0013435
0.0015369
0.0017375
0.001933
0.00011869
0.00021622
0.00034521
0.00048279
0.00064962
0.0008205
0.0010239
0.0012147
0.0014181
0.0016082
0.0018124
0.002019
0.00012948
0.00022909
0.00036132
0.00050871
0.00067453
0.0008505
0.0010611
0.0012553
0.0014658
0.001663
0.0018646
0.002078
0.00013029
0.00023375
0.00036819
0.0005191
0.00068699
0.00087472
0.0010829
0.0012875
0.0014957
0.001696
0.0019046
0.002119
0.00012752
0.00023149
0.00036736
0.00052027
0.00068964
0.00088016
0.0010917
0.0012994
0.0015124
0.0017148
0.0019265
0.0021451
0.00012488
0.00022768
0.00036556
0.00051908
0.00068947
0.00088123
0.0010946
0.0013045
0.0015199
0.0017243
0.0019382
0.00216
0.00012377
0.00022564
0.00036461
0.00051828
0.00068897
0.0008811
0.0010952
0.0013058
0.0015221
0.0017273
0.001942
0.0021651
0.00012499
0.00022779
0.00036568
0.00051922
0.00068965
0.00088151
0.001095
0.0013049
0.0015205
0.0017249
0.0019388
0.0021606
0.00012796
0.00023197
0.0003679
0.0005209
0.00069035
0.00088104
0.0010927
0.0013005
0.0015136
0.001716
0.0019277
0.0021462
0.00013135
0.00023492
0.00036965
0.00052071
0.0006887
0.00087666
0.001085
0.0012895
0.0014978
0.0016979
0.0019064
0.0021205
0.00013149
0.00023124
0.00036404
0.00051171
0.0006776
0.00086125
0.0010644
0.0012582
0.0014687
0.0016655
0.0018666
0.0020799
0.00012109
0.00021909
0.00034885
0.00048663
0.00065374
0.00082461
0.0010281
0.0012183
0.0014216
0.0016111
0.0018146
0.002021
0.00011289
0.00020325
0.00032107
0.00045817
0.00061079
0.00078156
0.00096693
0.0011601
0.001347
0.0015396
0.0017399
0.0019348
0.0001055
0.00019103
0.0002967
0.00042516
0.00056677
0.00072787
0.00089831
0.0010856
0.0012582
0.0014467
0.0016363
0.0018346
0.00010021
0.00018131
0.00027529
0.0003897
0.00051993
0.00066289
0.00082147
0.00098673
0.0011585
0.0013326
0.0015113
0.0017143
9.9821e-05
0.00015013
0.0002689
0.00036761
0.00048752
0.00060638
0.00074495
0.00090063
0.0010604
0.0012292
0.0014031
0.0016028
0.0018065
0.0019016
0.0020118
0.0021165
0.0021988
0.0022617
0.0023089
0.0023389
0.0023562
0.002362
0.0023567
0.0023398
0.0023101
0.002263
0.0022002
0.0021176
0.0020123
0.0019016
0.0018058
0.0019066
0.0020609
0.0021475
0.0022507
0.002338
0.0024074
0.0024584
0.0024987
0.0025202
0.0025275
0.0025206
0.0024993
0.0024592
0.0024082
0.0023387
0.0022509
0.0021471
0.0020599
0.0019048
0.0020149
0.0021476
0.0022658
0.0023735
0.0024652
0.0025389
0.0025982
0.0026432
0.0026693
0.0026782
0.0026696
0.0026435
0.0025986
0.0025391
0.0024651
0.0023729
0.0022645
0.0021456
0.0020121
0.0021208
0.0022517
0.0023741
0.0024865
0.0025767
0.002652
0.002716
0.0027673
0.0027993
0.0028103
0.0027993
0.0027672
0.0027157
0.0026515
0.0025758
0.0024851
0.0023719
0.0022489
0.0021169
0.002204
0.0023401
0.0024664
0.0025771
0.0026677
0.0027458
0.0028155
0.002874
0.0029153
0.0029296
0.002915
0.0028735
0.0028146
0.0027445
0.0026659
0.0025747
0.0024634
0.0023364
0.0021994
0.002268
0.0024096
0.00254
0.0026524
0.0027457
0.0028293
0.0029084
0.0029809
0.0030351
0.0030549
0.0030345
0.0029798
0.0029068
0.0028272
0.0027432
0.0026493
0.0025363
0.0024053
0.0022629
0.002315
0.0024635
0.0025995
0.0027164
0.0028155
0.0029086
0.0030028
0.0030986
0.0031735
0.0032029
0.0031727
0.003097
0.0030005
0.0029057
0.0028122
0.0027126
0.0025952
0.0024588
0.0023097
0.0023455
0.0025022
0.0026448
0.0027682
0.0028758
0.0029824
0.0030986
0.0032264
0.0033365
0.0033813
0.0033355
0.0032243
0.0030956
0.0029788
0.0028717
0.0027638
0.0026402
0.0024973
0.0023403
0.0023632
0.0025249
0.0026724
0.0028016
0.0029176
0.0030378
0.0031767
0.0033396
0.0034906
0.003554
0.0034895
0.0033372
0.0031733
0.0030337
0.0029131
0.0027969
0.0026675
0.0025199
0.0023581
0.0023691
0.0025324
0.0026818
0.0028133
0.002933
0.0030593
0.0032086
0.0033882
0.0035588
0.0036313
0.0035576
0.0033857
0.0032051
0.003055
0.0029284
0.0028085
0.0026768
0.0025275
0.0023641
0.0023637
0.0025257
0.0026735
0.002803
0.0029195
0.0030404
0.0031805
0.0033453
0.0034986
0.0035631
0.0034975
0.0033429
0.0031771
0.0030363
0.002915
0.0027969
0.0026687
0.0025207
0.0023587
0.0023467
0.0025045
0.0026482
0.0027716
0.0028804
0.0029878
0.0031054
0.0032353
0.0033487
0.0033949
0.0033477
0.0032332
0.0031024
0.0029842
0.0028763
0.0027672
0.0026435
0.0024996
0.0023415
0.0023168
0.0024672
0.0026042
0.0027215
0.0028211
0.0029147
0.0030101
0.0031075
0.0031844
0.0032147
0.0031836
0.0031058
0.0030077
0.0029118
0.0028176
0.0027176
0.0025998
0.0024625
0.0023115
0.002272
0.0024146
0.0025453
0.0026579
0.0027515
0.0028355
0.0029153
0.002989
0.0030443
0.0030647
0.0030438
0.0029885
0.0029136
0.0028333
0.0027488
0.0026547
0.0025415
0.0024103
0.0022668
0.0022084
0.0023457
0.002472
0.0025829
0.0026737
0.002752
0.0028221
0.0028812
0.0029237
0.0029383
0.0029234
0.0028821
0.0028212
0.0027506
0.0026718
0.0025805
0.0024689
0.002342
0.0022038
0.0021255
0.0022589
0.0023815
0.0024937
0.0025841
0.0026594
0.0027236
0.0027749
0.0028078
0.0028189
0.0028078
0.0027752
0.0027233
0.0026589
0.0025831
0.0024922
0.0023792
0.0022559
0.0021215
0.0020201
0.0021526
0.0022729
0.0023822
0.0024741
0.0025479
0.0026076
0.002653
0.0026798
0.0026888
0.00268
0.0026534
0.0026079
0.002548
0.0024739
0.0023815
0.0022716
0.0021505
0.0020171
0.0019065
0.0020656
0.0021557
0.0022578
0.0023469
0.0024173
0.0024697
0.0025082
0.0025329
0.0025403
0.0025333
0.0025089
0.0024704
0.0024181
0.0023475
0.0022579
0.0021552
0.0020644
0.0019044
0.0018077
0.0019074
0.0020208
0.0021273
0.0022077
0.0022708
0.0023236
0.0023543
0.0023721
0.002378
0.0023725
0.0023552
0.0023248
0.0022721
0.002209
0.0021282
0.0020212
0.0019072
0.0018067
9.8637e-05
0.00015113
0.00026807
0.00036051
0.00048388
0.00060998
0.00074846
0.00090548
0.0010729
0.0012347
0.0014192
0.0016051
9.4783e-05
0.00017715
0.00026777
0.00038778
0.00051524
0.00066111
0.00081894
0.00098362
0.0011579
0.0013356
0.0015142
0.0017161
0.00010055
0.00017925
0.00029147
0.00041844
0.00056354
0.00072282
0.00089732
0.0010819
0.001259
0.0014439
0.001636
0.0018334
0.00010737
0.00020083
0.00031428
0.00045138
0.000606
0.00077708
0.00096523
0.001158
0.0013476
0.0015367
0.0017384
0.0019387
0.00011555
0.00020797
0.00033608
0.00047958
0.00064163
0.00082018
0.0010193
0.0012168
0.001417
0.0016088
0.0018129
0.0020205
0.00012382
0.00023761
0.00035688
0.00050124
0.00067165
0.00085185
0.0010518
0.0012592
0.0014558
0.0016617
0.0018677
0.0020713
0.00012332
0.0002288
0.00036718
0.0005117
0.00068979
0.00086961
0.0010644
0.0012854
0.0014765
0.0016961
0.001905
0.0021053
0.0001233
0.00023325
0.00036337
0.00051698
0.0006875
0.00087912
0.0010919
0.0013003
0.0015048
0.0017168
0.0019284
0.0021398
0.00012395
0.00023693
0.0003662
0.00052074
0.00069192
0.00088471
0.0010987
0.0013083
0.0015243
0.001728
0.0019411
0.0021523
0.00012421
0.00022717
0.00036721
0.00052202
0.00069334
0.00088641
0.0011008
0.0013107
0.0015272
0.0017314
0.0019451
0.0021679
0.00012378
0.00023769
0.00036602
0.00052054
0.00069172
0.00088445
0.0010985
0.0013081
0.0015242
0.0017281
0.0019413
0.0021518
0.00012324
0.0002351
0.00036336
0.00051694
0.00068745
0.00087904
0.0010918
0.0013004
0.0015033
0.0017172
0.001929
0.0021389
0.0001231
0.00023149
0.00036243
0.00051147
0.00068406
0.00086938
0.0010794
0.0012856
0.0014875
0.0016968
0.0019062
0.0021147
0.00012542
0.00022479
0.00035894
0.00050116
0.00067437
0.00085208
0.0010452
0.0012601
0.00145
0.0016633
0.0018696
0.0020689
0.00011617
0.00022498
0.00033975
0.00047975
0.00064515
0.00082051
0.0010157
0.0012181
0.0014101
0.0016115
0.0018153
0.0020157
0.00010746
0.00020421
0.00031545
0.0004511
0.00060766
0.00077703
0.00096755
0.0011594
0.0013511
0.0015397
0.0017328
0.0019418
0.00010053
0.00019168
0.00029244
0.00041802
0.00056516
0.00072276
0.0008997
0.0010836
0.0012625
0.0014472
0.0016358
0.0018386
0.00010126
0.00018039
0.00026913
0.00038956
0.000516
0.00066275
0.0008188
0.00098212
0.0011583
0.0013279
0.0015138
0.0017168
9.8242e-05
0.00014859
0.0002669
0.00036091
0.00048371
0.00060731
0.00075266
0.00090218
0.0010659
0.0012307
0.0014154
0.0016034
9.9457e-05
0.00015206
0.00026891
0.00036143
0.00048479
0.00061095
0.00074945
0.0009065
0.0010739
0.0012358
0.0014203
0.0016062
9.7004e-05
0.00017988
0.00027082
0.00039103
0.00051854
0.00066447
0.00082229
0.00098672
0.0011608
0.0013384
0.0015167
0.0017185
0.00010445
0.00018409
0.00029695
0.00042444
0.0005696
0.0007289
0.00090341
0.0010871
0.0012642
0.0014483
0.0016403
0.0018371
0.00011288
0.00020686
0.00032201
0.00045987
0.0006146
0.00078585
0.00097397
0.0011654
0.0013549
0.0015428
0.0017436
0.0019435
0.00012218
0.00021681
0.0003453
0.00048969
0.00065196
0.00083085
0.00103
0.0012259
0.001426
0.0016161
0.001819
0.0020259
0.00013153
0.00022864
0.0003669
0.00051181
0.00068262
0.00086304
0.0010619
0.0012687
0.0014641
0.0016693
0.0018741
0.002077
0.00013077
0.00023711
0.00037777
0.00052267
0.00070099
0.00088073
0.0010743
0.0012945
0.0014845
0.0017034
0.0019114
0.002111
0.00012815
0.00023865
0.00036982
0.00052398
0.00069432
0.0008864
0.0010991
0.0013067
0.0015111
0.0017227
0.0019338
0.0021452
0.00012575
0.00023879
0.0003683
0.00052308
0.00069444
0.00088783
0.0011024
0.0013122
0.0015287
0.0017326
0.0019458
0.0021573
0.00012448
0.00022734
0.00036713
0.00052202
0.0006937
0.00088744
0.0011027
0.0013133
0.0015306
0.0017354
0.0019495
0.0021727
0.00012533
0.00023928
0.00036777
0.00052249
0.00069388
0.00088723
0.0011019
0.0013118
0.0015285
0.0017325
0.001946
0.0021567
0.00012778
0.00024025
0.00036936
0.00052345
0.00069382
0.00088588
0.0010986
0.0013065
0.0015094
0.0017229
0.0019344
0.0021443
0.00013032
0.00023974
0.00037242
0.0005221
0.00069467
0.00088015
0.0010829
0.0012944
0.0014957
0.0017039
0.0019124
0.0021205
0.00013371
0.00023267
0.00036911
0.00051184
0.00068536
0.00086335
0.0010553
0.0012696
0.0014583
0.0016709
0.0018761
0.0020746
0.00012354
0.00023351
0.00034953
0.00049003
0.00065586
0.00083134
0.0010256
0.0012273
0.0014183
0.0016189
0.0018215
0.0020211
0.00011318
0.00021161
0.00032351
0.00045988
0.00061661
0.0007861
0.00097666
0.0011671
0.0013582
0.001546
0.0017384
0.0019465
0.00010468
0.00019694
0.00029829
0.00042439
0.00057162
0.00072922
0.00090618
0.0010891
0.001268
0.0014519
0.00164
0.0018425
9.8303e-05
0.00018339
0.00027263
0.00039314
0.00051971
0.00066646
0.00082306
0.00098557
0.0011615
0.001331
0.0015165
0.0017193
9.932e-05
0.00014993
0.00026803
0.00036203
0.00048499
0.00060865
0.00075401
0.00090354
0.0010673
0.0012321
0.0014168
0.0016048
)
;
refField        nonuniform List<vector> 
(
//ref
(4.0271 0 0)
(20.485 0 0)
(18.843 0 0)
(28.494 0 0)
(30.272 0 0)
(33.898 0 0)
(35.551 0 0)
(37.019 0 0)
(38.427 0 0)
(39.616 0 0)
(40.829 0 0)
(42.15 0 0)
(6.5905 0 0)
(17.929 0 0)
(26.331 0 0)
(30.666 0 0)
(33.027 0 0)
(34.971 0 0)
(36.441 0 0)
(37.857 0 0)
(39.126 0 0)
(40.379 0 0)
(41.61 0 0)
(42.871 0 0)
(6.7941 0 0)
(22.17 0 0)
(27.495 0 0)
(32.004 0 0)
(34.02 0 0)
(35.928 0 0)
(37.311 0 0)
(38.718 0 0)
(39.936 0 0)
(41.19 0 0)
(42.408 0 0)
(43.613 0 0)
(7.325 0 0)
(22.186 0 0)
(28.541 0 0)
(32.83 0 0)
(34.888 0 0)
(36.681 0 0)
(38.088 0 0)
(39.43 0 0)
(40.678 0 0)
(41.888 0 0)
(43.106 0 0)
(44.31 0 0)
(8.1245 0 0)
(23.81 0 0)
(29.43 0 0)
(33.518 0 0)
(35.581 0 0)
(37.298 0 0)
(38.708 0 0)
(40.013 0 0)
(41.272 0 0)
(42.447 0 0)
(43.633 0 0)
(44.887 0 0)
(9.2653 0 0)
(24.369 0 0)
(30.089 0 0)
(34.014 0 0)
(36.142 0 0)
(37.755 0 0)
(39.226 0 0)
(40.454 0 0)
(41.748 0 0)
(42.874 0 0)
(44.04 0 0)
(45.299 0 0)
(9.3795 0 0)
(24.337 0 0)
(30.424 0 0)
(34.414 0 0)
(36.465 0 0)
(38.132 0 0)
(39.545 0 0)
(40.821 0 0)
(42.063 0 0)
(43.201 0 0)
(44.375 0 0)
(45.6 0 0)
(8.685 0 0)
(24.109 0 0)
(30.612 0 0)
(34.583 0 0)
(36.671 0 0)
(38.325 0 0)
(39.75 0 0)
(41.024 0 0)
(42.275 0 0)
(43.408 0 0)
(44.58 0 0)
(45.804 0 0)
(8.1439 0 0)
(24.331 0 0)
(30.588 0 0)
(34.675 0 0)
(36.769 0 0)
(38.437 0 0)
(39.866 0 0)
(41.143 0 0)
(42.405 0 0)
(43.53 0 0)
(44.7 0 0)
(45.922 0 0)
(7.9378 0 0)
(24.441 0 0)
(30.572 0 0)
(34.704 0 0)
(36.801 0 0)
(38.474 0 0)
(39.905 0 0)
(41.183 0 0)
(42.446 0 0)
(43.571 0 0)
(44.74 0 0)
(45.96 0 0)
(8.1641 0 0)
(24.346 0 0)
(30.599 0 0)
(34.681 0 0)
(36.775 0 0)
(38.441 0 0)
(39.87 0 0)
(41.146 0 0)
(42.407 0 0)
(43.532 0 0)
(44.701 0 0)
(45.922 0 0)
(8.7618 0 0)
(24.169 0 0)
(30.641 0 0)
(34.596 0 0)
(36.683 0 0)
(38.333 0 0)
(39.757 0 0)
(41.029 0 0)
(42.279 0 0)
(43.411 0 0)
(44.581 0 0)
(45.804 0 0)
(9.5575 0 0)
(24.478 0 0)
(30.48 0 0)
(34.436 0 0)
(36.485 0 0)
(38.145 0 0)
(39.556 0 0)
(40.828 0 0)
(42.069 0 0)
(43.205 0 0)
(44.377 0 0)
(45.601 0 0)
(9.5789 0 0)
(24.462 0 0)
(30.184 0 0)
(34.044 0 0)
(36.169 0 0)
(37.77 0 0)
(39.239 0 0)
(40.462 0 0)
(41.754 0 0)
(42.878 0 0)
(44.041 0 0)
(45.3 0 0)
(8.5353 0 0)
(23.936 0 0)
(29.565 0 0)
(33.555 0 0)
(35.616 0 0)
(37.314 0 0)
(38.723 0 0)
(40.02 0 0)
(41.28 0 0)
(42.45 0 0)
(43.633 0 0)
(44.888 0 0)
(7.7651 0 0)
(22.396 0 0)
(28.681 0 0)
(32.866 0 0)
(34.924 0 0)
(36.695 0 0)
(38.102 0 0)
(39.436 0 0)
(40.684 0 0)
(41.89 0 0)
(43.105 0 0)
(44.31 0 0)
(7.1748 0 0)
(22.381 0 0)
(27.614 0 0)
(32.033 0 0)
(34.049 0 0)
(35.938 0 0)
(37.32 0 0)
(38.721 0 0)
(39.939 0 0)
(41.19 0 0)
(42.409 0 0)
(43.611 0 0)
(6.8532 0 0)
(18.133 0 0)
(26.407 0 0)
(30.72 0 0)
(33.042 0 0)
(34.983 0 0)
(36.444 0 0)
(37.858 0 0)
(39.125 0 0)
(40.376 0 0)
(41.606 0 0)
(42.867 0 0)
(4.0834 0 0)
(20.506 0 0)
(18.868 0 0)
(28.499 0 0)
(30.273 0 0)
(33.893 0 0)
(35.545 0 0)
(37.011 0 0)
(38.42 0 0)
(39.609 0 0)
(40.822 0 0)
(42.144 0 0)
(3.9476 0 0)
(20.698 0 0)
(19.611 0 0)
(25.888 0 0)
(30.383 0 0)
(33.801 0 0)
(35.349 0 0)
(36.924 0 0)
(38.254 0 0)
(39.513 0 0)
(40.74 0 0)
(42.072 0 0)
(5.8462 0 0)
(16.621 0 0)
(25.499 0 0)
(30.017 0 0)
(32.849 0 0)
(34.796 0 0)
(36.437 0 0)
(37.758 0 0)
(39.089 0 0)
(40.302 0 0)
(41.486 0 0)
(42.803 0 0)
(6.7954 0 0)
(20.145 0 0)
(27.364 0 0)
(32.017 0 0)
(33.96 0 0)
(35.927 0 0)
(37.258 0 0)
(38.7 0 0)
(39.876 0 0)
(41.143 0 0)
(42.342 0 0)
(43.582 0 0)
(7.296 0 0)
(22.727 0 0)
(28.39 0 0)
(32.816 0 0)
(34.813 0 0)
(36.658 0 0)
(38.023 0 0)
(39.394 0 0)
(40.605 0 0)
(41.831 0 0)
(43.053 0 0)
(44.233 0 0)
(8.0912 0 0)
(23.547 0 0)
(29.286 0 0)
(33.484 0 0)
(35.555 0 0)
(37.258 0 0)
(38.691 0 0)
(39.962 0 0)
(41.225 0 0)
(42.381 0 0)
(43.584 0 0)
(44.804 0 0)
(9.0811 0 0)
(23.679 0 0)
(29.875 0 0)
(34.036 0 0)
(36.044 0 0)
(37.703 0 0)
(39.144 0 0)
(40.392 0 0)
(41.661 0 0)
(42.814 0 0)
(43.979 0 0)
(45.212 0 0)
(9.2321 0 0)
(23.798 0 0)
(30.279 0 0)
(34.341 0 0)
(36.379 0 0)
(38.061 0 0)
(39.463 0 0)
(40.743 0 0)
(41.974 0 0)
(43.118 0 0)
(44.296 0 0)
(45.51 0 0)
(8.5683 0 0)
(23.777 0 0)
(30.438 0 0)
(34.508 0 0)
(36.573 0 0)
(38.251 0 0)
(39.66 0 0)
(40.943 0 0)
(42.187 0 0)
(43.322 0 0)
(44.497 0 0)
(45.712 0 0)
(8.0292 0 0)
(24.083 0 0)
(30.413 0 0)
(34.598 0 0)
(36.668 0 0)
(38.361 0 0)
(39.774 0 0)
(41.06 0 0)
(42.308 0 0)
(43.441 0 0)
(44.615 0 0)
(45.831 0 0)
(7.8138 0 0)
(24.332 0 0)
(30.393 0 0)
(34.626 0 0)
(36.698 0 0)
(38.397 0 0)
(39.811 0 0)
(41.099 0 0)
(42.347 0 0)
(43.481 0 0)
(44.654 0 0)
(45.872 0 0)
(8.0492 0 0)
(24.099 0 0)
(30.423 0 0)
(34.604 0 0)
(36.674 0 0)
(38.365 0 0)
(39.777 0 0)
(41.063 0 0)
(42.31 0 0)
(43.443 0 0)
(44.616 0 0)
(45.832 0 0)
(8.6439 0 0)
(23.837 0 0)
(30.467 0 0)
(34.522 0 0)
(36.585 0 0)
(38.26 0 0)
(39.668 0 0)
(40.949 0 0)
(42.191 0 0)
(43.324 0 0)
(44.499 0 0)
(45.713 0 0)
(9.4075 0 0)
(23.936 0 0)
(30.335 0 0)
(34.363 0 0)
(36.398 0 0)
(38.074 0 0)
(39.473 0 0)
(40.751 0 0)
(41.98 0 0)
(43.121 0 0)
(44.298 0 0)
(45.511 0 0)
(9.3876 0 0)
(23.938 0 0)
(29.968 0 0)
(34.068 0 0)
(36.072 0 0)
(37.774 0 0)
(39.157 0 0)
(40.399 0 0)
(41.668 0 0)
(42.817 0 0)
(43.98 0 0)
(45.213 0 0)
(8.4935 0 0)
(23.886 0 0)
(29.407 0 0)
(33.519 0 0)
(35.588 0 0)
(37.274 0 0)
(38.705 0 0)
(39.969 0 0)
(41.232 0 0)
(42.384 0 0)
(43.585 0 0)
(44.805 0 0)
(7.7309 0 0)
(23.107 0 0)
(28.529 0 0)
(32.851 0 0)
(34.848 0 0)
(36.672 0 0)
(38.037 0 0)
(39.4 0 0)
(40.611 0 0)
(41.833 0 0)
(43.054 0 0)
(44.234 0 0)
(7.1788 0 0)
(20.469 0 0)
(27.485 0 0)
(32.046 0 0)
(33.989 0 0)
(35.937 0 0)
(37.268 0 0)
(38.703 0 0)
(39.878 0 0)
(41.143 0 0)
(42.342 0 0)
(43.581 0 0)
(6.0322 0 0)
(16.827 0 0)
(25.568 0 0)
(30.071 0 0)
(32.865 0 0)
(34.808 0 0)
(36.384 0 0)
(37.759 0 0)
(39.088 0 0)
(40.3 0 0)
(41.483 0 0)
(42.799 0 0)
(4.0213 0 0)
(20.715 0 0)
(18.795 0 0)
(25.915 0 0)
(30.388 0 0)
(33.798 0 0)
(35.344 0 0)
(36.919 0 0)
(38.247 0 0)
(39.507 0 0)
(40.733 0 0)
(42.067 0 0)
(43.357 0 0)
(43.969 0 0)
(44.675 0 0)
(45.354 0 0)
(45.897 0 0)
(46.318 0 0)
(46.636 0 0)
(46.847 0 0)
(46.971 0 0)
(47.012 0 0)
(46.971 0 0)
(46.847 0 0)
(46.636 0 0)
(46.318 0 0)
(45.897 0 0)
(45.353 0 0)
(44.673 0 0)
(43.965 0 0)
(43.352 0 0)
(43.997 0 0)
(44.952 0 0)
(45.513 0 0)
(46.19 0 0)
(46.779 0 0)
(47.246 0 0)
(47.591 0 0)
(47.86 0 0)
(48.004 0 0)
(48.052 0 0)
(48.004 0 0)
(47.86 0 0)
(47.591 0 0)
(47.246 0 0)
(46.779 0 0)
(46.188 0 0)
(45.51 0 0)
(44.948 0 0)
(43.991 0 0)
(44.691 0 0)
(45.513 0 0)
(46.278 0 0)
(47.007 0 0)
(47.649 0 0)
(48.166 0 0)
(48.572 0 0)
(48.872 0 0)
(49.041 0 0)
(49.096 0 0)
(49.041 0 0)
(48.872 0 0)
(48.572 0 0)
(48.165 0 0)
(47.648 0 0)
(47.005 0 0)
(46.275 0 0)
(45.508 0 0)
(44.685 0 0)
(45.376 0 0)
(46.195 0 0)
(47.011 0 0)
(47.817 0 0)
(48.497 0 0)
(49.059 0 0)
(49.513 0 0)
(49.855 0 0)
(50.053 0 0)
(50.118 0 0)
(50.053 0 0)
(49.855 0 0)
(49.513 0 0)
(49.059 0 0)
(48.496 0 0)
(47.816 0 0)
(47.009 0 0)
(46.191 0 0)
(45.37 0 0)
(45.924 0 0)
(46.789 0 0)
(47.658 0 0)
(48.501 0 0)
(49.237 0 0)
(49.855 0 0)
(50.361 0 0)
(50.729 0 0)
(50.969 0 0)
(51.044 0 0)
(50.969 0 0)
(50.729 0 0)
(50.361 0 0)
(49.856 0 0)
(49.237 0 0)
(48.5 0 0)
(47.655 0 0)
(46.786 0 0)
(45.918 0 0)
(46.351 0 0)
(47.259 0 0)
(48.175 0 0)
(49.064 0 0)
(49.857 0 0)
(50.534 0 0)
(51.093 0 0)
(51.495 0 0)
(51.77 0 0)
(51.855 0 0)
(51.771 0 0)
(51.496 0 0)
(51.094 0 0)
(50.535 0 0)
(49.857 0 0)
(49.064 0 0)
(48.173 0 0)
(47.255 0 0)
(46.344 0 0)
(46.67 0 0)
(47.622 0 0)
(48.583 0 0)
(49.52 0 0)
(50.365 0 0)
(51.096 0 0)
(51.702 0 0)
(52.145 0 0)
(52.439 0 0)
(52.532 0 0)
(52.44 0 0)
(52.146 0 0)
(51.704 0 0)
(51.097 0 0)
(50.365 0 0)
(49.52 0 0)
(48.581 0 0)
(47.618 0 0)
(46.662 0 0)
(46.884 0 0)
(47.882 0 0)
(48.885 0 0)
(49.865 0 0)
(50.752 0 0)
(51.526 0 0)
(52.17 0 0)
(52.659 0 0)
(52.952 0 0)
(53.05 0 0)
(52.953 0 0)
(52.661 0 0)
(52.172 0 0)
(51.528 0 0)
(50.753 0 0)
(49.865 0 0)
(48.883 0 0)
(47.878 0 0)
(46.876 0 0)
(47.011 0 0)
(48.034 0 0)
(49.064 0 0)
(50.073 0 0)
(50.987 0 0)
(51.787 0 0)
(52.453 0 0)
(52.96 0 0)
(53.251 0 0)
(53.346 0 0)
(53.252 0 0)
(52.962 0 0)
(52.456 0 0)
(51.789 0 0)
(50.988 0 0)
(50.073 0 0)
(49.062 0 0)
(48.03 0 0)
(47.003 0 0)
(47.054 0 0)
(48.085 0 0)
(49.123 0 0)
(50.142 0 0)
(51.067 0 0)
(51.876 0 0)
(52.551 0 0)
(53.063 0 0)
(53.35 0 0)
(53.441 0 0)
(53.352 0 0)
(53.066 0 0)
(52.554 0 0)
(51.879 0 0)
(51.068 0 0)
(50.142 0 0)
(49.121 0 0)
(48.081 0 0)
(47.047 0 0)
(47.015 0 0)
(48.04 0 0)
(49.071 0 0)
(50.081 0 0)
(50.996 0 0)
(51.797 0 0)
(52.464 0 0)
(52.972 0 0)
(53.262 0 0)
(53.357 0 0)
(53.264 0 0)
(52.974 0 0)
(52.467 0 0)
(51.8 0 0)
(50.998 0 0)
(50.069 0 0)
(49.069 0 0)
(48.035 0 0)
(47.008 0 0)
(46.893 0 0)
(47.898 0 0)
(48.907 0 0)
(49.886 0 0)
(50.779 0 0)
(51.554 0 0)
(52.198 0 0)
(52.69 0 0)
(52.979 0 0)
(53.077 0 0)
(52.98 0 0)
(52.693 0 0)
(52.201 0 0)
(51.556 0 0)
(50.781 0 0)
(49.886 0 0)
(48.905 0 0)
(47.894 0 0)
(46.886 0 0)
(46.684 0 0)
(47.647 0 0)
(48.614 0 0)
(49.555 0 0)
(50.402 0 0)
(51.136 0 0)
(51.745 0 0)
(52.195 0 0)
(52.485 0 0)
(52.578 0 0)
(52.486 0 0)
(52.197 0 0)
(51.746 0 0)
(51.137 0 0)
(50.403 0 0)
(49.554 0 0)
(48.612 0 0)
(47.643 0 0)
(46.677 0 0)
(46.379 0 0)
(47.293 0 0)
(48.21 0 0)
(49.103 0 0)
(49.9 0 0)
(50.581 0 0)
(51.143 0 0)
(51.548 0 0)
(51.825 0 0)
(51.91 0 0)
(51.825 0 0)
(51.573 0 0)
(51.144 0 0)
(50.582 0 0)
(49.901 0 0)
(49.103 0 0)
(48.208 0 0)
(47.289 0 0)
(46.372 0 0)
(45.955 0 0)
(46.828 0 0)
(47.697 0 0)
(48.544 0 0)
(49.285 0 0)
(49.907 0 0)
(50.416 0 0)
(50.783 0 0)
(51.03 0 0)
(51.106 0 0)
(51.031 0 0)
(50.803 0 0)
(50.417 0 0)
(49.908 0 0)
(49.285 0 0)
(48.543 0 0)
(47.694 0 0)
(46.824 0 0)
(45.949 0 0)
(45.409 0 0)
(46.243 0 0)
(47.061 0 0)
(47.87 0 0)
(48.556 0 0)
(49.121 0 0)
(49.578 0 0)
(49.917 0 0)
(50.121 0 0)
(50.187 0 0)
(50.121 0 0)
(49.922 0 0)
(49.578 0 0)
(49.121 0 0)
(48.555 0 0)
(47.869 0 0)
(47.058 0 0)
(46.239 0 0)
(45.403 0 0)
(44.726 0 0)
(45.547 0 0)
(46.326 0 0)
(47.067 0 0)
(47.714 0 0)
(48.233 0 0)
(48.642 0 0)
(48.945 0 0)
(49.117 0 0)
(49.173 0 0)
(49.117 0 0)
(48.945 0 0)
(48.642 0 0)
(48.232 0 0)
(47.713 0 0)
(47.066 0 0)
(46.323 0 0)
(45.543 0 0)
(44.72 0 0)
(43.999 0 0)
(44.982 0 0)
(45.562 0 0)
(46.235 0 0)
(46.837 0 0)
(47.311 0 0)
(47.665 0 0)
(47.924 0 0)
(48.086 0 0)
(48.135 0 0)
(48.086 0 0)
(47.924 0 0)
(47.665 0 0)
(47.311 0 0)
(46.836 0 0)
(46.233 0 0)
(45.559 0 0)
(44.978 0 0)
(43.993 0 0)
(43.366 0 0)
(44.003 0 0)
(44.729 0 0)
(45.417 0 0)
(45.947 0 0)
(46.368 0 0)
(46.723 0 0)
(46.937 0 0)
(47.063 0 0)
(47.105 0 0)
(47.063 0 0)
(46.937 0 0)
(46.723 0 0)
(46.368 0 0)
(45.947 0 0)
(45.416 0 0)
(44.726 0 0)
(43.999 0 0)
(43.36 0 0)
(3.9213 0 0)
(20.401 0 0)
(19.256 0 0)
(28.365 0 0)
(31.06 0 0)
(33.803 0 0)
(35.219 0 0)
(36.947 0 0)
(38.377 0 0)
(39.536 0 0)
(40.853 0 0)
(42.086 0 0)
(6.1362 0 0)
(16.684 0 0)
(26.181 0 0)
(29.648 0 0)
(32.944 0 0)
(34.694 0 0)
(36.366 0 0)
(37.723 0 0)
(39.083 0 0)
(40.338 0 0)
(41.517 0 0)
(42.819 0 0)
(6.4278 0 0)
(21.588 0 0)
(27.312 0 0)
(31.942 0 0)
(33.959 0 0)
(35.889 0 0)
(37.272 0 0)
(38.685 0 0)
(39.902 0 0)
(41.141 0 0)
(42.362 0 0)
(43.586 0 0)
(6.9145 0 0)
(20.052 0 0)
(28.305 0 0)
(32.778 0 0)
(34.817 0 0)
(36.654 0 0)
(38.049 0 0)
(39.408 0 0)
(40.641 0 0)
(41.838 0 0)
(43.071 0 0)
(44.281 0 0)
(7.6937 0 0)
(23.459 0 0)
(29.2 0 0)
(33.453 0 0)
(35.516 0 0)
(37.267 0 0)
(38.674 0 0)
(39.989 0 0)
(41.236 0 0)
(42.395 0 0)
(43.604 0 0)
(44.831 0 0)
(7.8737 0 0)
(18.146 0 0)
(28.975 0 0)
(33.96 0 0)
(35.83 0 0)
(37.73 0 0)
(39.07 0 0)
(40.434 0 0)
(41.607 0 0)
(42.826 0 0)
(44.014 0 0)
(45.203 0 0)
(8.1336 0 0)
(22.319 0 0)
(28.346 0 0)
(34.273 0 0)
(35.903 0 0)
(38.041 0 0)
(39.276 0 0)
(40.744 0 0)
(41.849 0 0)
(43.133 0 0)
(44.314 0 0)
(45.471 0 0)
(7.8992 0 0)
(21.405 0 0)
(30.29 0 0)
(34.467 0 0)
(36.547 0 0)
(38.24 0 0)
(39.66 0 0)
(40.948 0 0)
(42.13 0 0)
(43.339 0 0)
(44.518 0 0)
(45.707 0 0)
(7.8707 0 0)
(20.808 0 0)
(30.397 0 0)
(34.578 0 0)
(36.664 0 0)
(38.354 0 0)
(39.779 0 0)
(41.068 0 0)
(42.326 0 0)
(43.461 0 0)
(44.638 0 0)
(45.818 0 0)
(7.8637 0 0)
(24.34 0 0)
(30.43 0 0)
(34.612 0 0)
(36.7 0 0)
(38.391 0 0)
(39.818 0 0)
(41.107 0 0)
(42.368 0 0)
(43.502 0 0)
(44.679 0 0)
(45.904 0 0)
(7.8327 0 0)
(20.478 0 0)
(30.388 0 0)
(34.578 0 0)
(36.664 0 0)
(38.357 0 0)
(39.782 0 0)
(41.071 0 0)
(42.33 0 0)
(43.465 0 0)
(44.642 0 0)
(45.819 0 0)
(7.873 0 0)
(20.767 0 0)
(30.288 0 0)
(34.474 0 0)
(36.554 0 0)
(38.249 0 0)
(39.668 0 0)
(40.958 0 0)
(42.127 0 0)
(43.349 0 0)
(44.528 0 0)
(45.709 0 0)
(8.071 0 0)
(21.338 0 0)
(29.432 0 0)
(34.284 0 0)
(36.167 0 0)
(38.054 0 0)
(39.467 0 0)
(40.758 0 0)
(41.936 0 0)
(43.147 0 0)
(44.329 0 0)
(45.516 0 0)
(7.041 0 0)
(21.998 0 0)
(28.317 0 0)
(33.979 0 0)
(35.666 0 0)
(37.753 0 0)
(39.01 0 0)
(40.457 0 0)
(41.577 0 0)
(42.847 0 0)
(44.035 0 0)
(45.201 0 0)
(7.4695 0 0)
(17.845 0 0)
(28.531 0 0)
(33.482 0 0)
(35.382 0 0)
(37.297 0 0)
(38.644 0 0)
(40.018 0 0)
(41.196 0 0)
(42.425 0 0)
(43.628 0 0)
(44.817 0 0)
(6.8331 0 0)
(19.094 0 0)
(28.341 0 0)
(32.81 0 0)
(34.862 0 0)
(36.689 0 0)
(38.088 0 0)
(39.442 0 0)
(40.679 0 0)
(41.869 0 0)
(43.042 0 0)
(44.307 0 0)
(6.2967 0 0)
(17.533 0 0)
(27.337 0 0)
(31.984 0 0)
(34.005 0 0)
(35.932 0 0)
(37.311 0 0)
(38.724 0 0)
(39.938 0 0)
(41.175 0 0)
(42.362 0 0)
(43.628 0 0)
(3.8965 0 0)
(15.483 0 0)
(25.807 0 0)
(29.225 0 0)
(32.91 0 0)
(34.602 0 0)
(36.44 0 0)
(37.695 0 0)
(39.101 0 0)
(40.255 0 0)
(41.514 0 0)
(42.829 0 0)
(3.8573 0 0)
(20.675 0 0)
(20.839 0 0)
(26.753 0 0)
(31.004 0 0)
(33.801 0 0)
(35.378 0 0)
(36.93 0 0)
(38.224 0 0)
(39.513 0 0)
(40.834 0 0)
(42.052 0 0)
(4.0093 0 0)
(20.455 0 0)
(19.325 0 0)
(28.402 0 0)
(31.092 0 0)
(33.824 0 0)
(35.237 0 0)
(36.962 0 0)
(38.389 0 0)
(39.547 0 0)
(40.862 0 0)
(42.094 0 0)
(6.5597 0 0)
(16.929 0 0)
(26.324 0 0)
(29.727 0 0)
(32.993 0 0)
(34.73 0 0)
(36.395 0 0)
(37.745 0 0)
(39.101 0 0)
(40.353 0 0)
(41.529 0 0)
(42.828 0 0)
(7.1399 0 0)
(22.102 0 0)
(27.544 0 0)
(32.016 0 0)
(34.031 0 0)
(35.928 0 0)
(37.309 0 0)
(38.71 0 0)
(39.925 0 0)
(41.157 0 0)
(42.376 0 0)
(43.595 0 0)
(7.8828 0 0)
(20.899 0 0)
(28.615 0 0)
(32.871 0 0)
(34.907 0 0)
(36.701 0 0)
(38.093 0 0)
(39.436 0 0)
(40.668 0 0)
(41.855 0 0)
(43.083 0 0)
(44.292 0 0)
(8.8273 0 0)
(23.827 0 0)
(29.563 0 0)
(33.561 0 0)
(35.618 0 0)
(37.319 0 0)
(38.723 0 0)
(40.02 0 0)
(41.264 0 0)
(42.413 0 0)
(43.615 0 0)
(44.839 0 0)
(8.7456 0 0)
(24.335 0 0)
(29.186 0 0)
(34.064 0 0)
(35.901 0 0)
(37.78 0 0)
(39.107 0 0)
(40.463 0 0)
(41.629 0 0)
(42.844 0 0)
(44.026 0 0)
(45.211 0 0)
(9.3488 0 0)
(23.246 0 0)
(28.543 0 0)
(34.375 0 0)
(35.972 0 0)
(38.091 0 0)
(39.315 0 0)
(40.776 0 0)
(41.873 0 0)
(43.153 0 0)
(44.328 0 0)
(45.481 0 0)
(8.6866 0 0)
(21.985 0 0)
(30.539 0 0)
(34.544 0 0)
(36.62 0 0)
(38.283 0 0)
(39.7 0 0)
(40.978 0 0)
(42.154 0 0)
(43.359 0 0)
(44.532 0 0)
(45.717 0 0)
(8.181 0 0)
(21.042 0 0)
(30.524 0 0)
(34.638 0 0)
(36.72 0 0)
(38.396 0 0)
(39.817 0 0)
(41.098 0 0)
(42.352 0 0)
(43.481 0 0)
(44.653 0 0)
(45.829 0 0)
(7.9336 0 0)
(24.4 0 0)
(30.494 0 0)
(34.664 0 0)
(36.748 0 0)
(38.432 0 0)
(39.854 0 0)
(41.138 0 0)
(42.393 0 0)
(43.522 0 0)
(44.694 0 0)
(45.915 0 0)
(8.1044 0 0)
(20.673 0 0)
(30.504 0 0)
(34.638 0 0)
(36.719 0 0)
(38.399 0 0)
(39.82 0 0)
(41.101 0 0)
(42.356 0 0)
(43.486 0 0)
(44.658 0 0)
(45.83 0 0)
(8.6124 0 0)
(21.274 0 0)
(30.524 0 0)
(34.55 0 0)
(36.626 0 0)
(38.292 0 0)
(39.709 0 0)
(40.987 0 0)
(42.151 0 0)
(43.368 0 0)
(44.542 0 0)
(45.719 0 0)
(9.249 0 0)
(22.175 0 0)
(29.707 0 0)
(34.384 0 0)
(36.247 0 0)
(38.104 0 0)
(39.43 0 0)
(40.789 0 0)
(41.962 0 0)
(43.167 0 0)
(44.343 0 0)
(45.527 0 0)
(7.7845 0 0)
(22.868 0 0)
(28.524 0 0)
(34.083 0 0)
(35.739 0 0)
(37.803 0 0)
(39.049 0 0)
(40.486 0 0)
(41.6 0 0)
(42.865 0 0)
(44.047 0 0)
(45.21 0 0)
(8.4075 0 0)
(18.417 0 0)
(28.76 0 0)
(33.591 0 0)
(35.46 0 0)
(37.35 0 0)
(38.685 0 0)
(40.049 0 0)
(41.22 0 0)
(42.443 0 0)
(43.64 0 0)
(44.825 0 0)
(7.8402 0 0)
(19.585 0 0)
(28.665 0 0)
(32.907 0 0)